VARIABLES = "X", "Y", "U",
ZONE I=199, J=101, DATAPACKING=POINT

       0.999859    0.000578289              0
       0.999127    0.000768564              0
       0.997909      0.0010851              0
       0.996205       0.001527              0
       0.994016     0.00209305              0
       0.991345     0.00278165              0
       0.988195      0.0035909              0
       0.984568     0.00451855              0
       0.980467     0.00556204              0
       0.975896     0.00671849              0
       0.970861     0.00798474              0
       0.965364     0.00935731              0
       0.959412      0.0108325              0
        0.95301      0.0124063              0
       0.946164      0.0140745              0
       0.938881      0.0158326              0
       0.931166       0.017676              0
       0.923029      0.0195997              0
       0.914475      0.0215989              0
       0.905514      0.0236682              0
       0.896154      0.0258024              0
       0.886403       0.027996              0
       0.876272      0.0302433              0
       0.865769      0.0325389              0
       0.854904      0.0348769              0
       0.843689      0.0372516              0
       0.832134      0.0396571              0
       0.820249      0.0420876              0
       0.808047      0.0445373              0
       0.795539      0.0470004              0
       0.782737       0.049471              0
       0.769654      0.0519433              0
       0.756302      0.0544118              0
       0.742694      0.0568706              0
       0.728844      0.0593143              0
       0.714764      0.0617373              0
       0.700469      0.0641344              0
       0.685973      0.0665002              0
        0.67129      0.0688296              0
       0.656433      0.0711177              0
       0.641419      0.0733595              0
       0.626261      0.0755506              0
       0.610974      0.0776862              0
       0.595574      0.0797621              0
       0.580076      0.0817742              0
       0.564494      0.0837185              0
       0.548846      0.0855913              0
       0.533145      0.0873891              0
       0.517408      0.0891086              0
        0.50165      0.0907467              0
       0.485887      0.0923006              0
       0.470135      0.0937677              0
       0.454409      0.0951458              0
       0.438726      0.0964327              0
       0.423101      0.0976267              0
        0.40755      0.0987264              0
       0.392088      0.0997304              0
       0.376731       0.100638              0
       0.361494       0.101448              0
       0.346394        0.10216              0
       0.331444       0.102775              0
       0.316662       0.103293              0
        0.30206       0.103713              0
       0.287654       0.104037              0
        0.27346       0.104266              0
        0.25949       0.104402              0
        0.24576       0.104445              0
       0.232283       0.104398              0
       0.219074       0.104263              0
       0.206144       0.104043              0
       0.192934       0.103654              0
       0.179541       0.102635              0
       0.166543       0.100963              0
       0.153961      0.0986961              0
       0.141814      0.0958914              0
       0.130118      0.0926081              0
       0.118888       0.088905              0
       0.108135      0.0848409              0
      0.0978667      0.0804732              0
      0.0880912      0.0758585              0
      0.0788142      0.0710515              0
      0.0700403      0.0661054              0
      0.0617731      0.0610714              0
      0.0540155      0.0559985              0
      0.0467698      0.0509338              0
       0.040038      0.0459219              0
      0.0338213       0.041005              0
       0.028121       0.036223              0
      0.0229378       0.031613              0
      0.0182722      0.0272095              0
      0.0141245      0.0230442              0
      0.0104947      0.0191459              0
     0.00738249      0.0155403              0
     0.00478728      0.0122503              0
     0.00270821     0.00929526              0
     0.00114406     0.00669161              0
   9.32958e-005     0.00445233              0
   -0.000446015     0.00258705              0
              0              0              0
     0.00241929    -0.00101233              0
     0.00434474   -0.000921598              0
     0.00674124   -0.000445552              0
     0.00960345    0.000402492              0
      0.0129255      0.0016062              0
      0.0167007     0.00314628              0
      0.0209221      0.0050006              0
      0.0255818     0.00714428              0
      0.0306713     0.00954984              0
      0.0361814      0.0121873              0
      0.0421025      0.0150245              0
       0.048424       0.018027              0
       0.055135      0.0211586              0
      0.0622236      0.0243814              0
      0.0696779      0.0276561              0
      0.0774849      0.0309422              0
      0.0856318      0.0341985              0
      0.0941052      0.0373829              0
       0.102892      0.0404534              0
       0.111978      0.0433679              0
       0.121352      0.0460844              0
          0.131      0.0485616              0
       0.140913       0.050759              0
       0.151079      0.0526367              0
       0.161492      0.0541557              0
       0.172145      0.0552777              0
       0.183035      0.0559649              0
       0.194159      0.0561799              0
       0.206071      0.0559478              0
       0.218843      0.0556468              0
        0.23189      0.0553444              0
       0.245198      0.0550378              0
       0.258756      0.0547244              0
        0.27255      0.0544012              0
       0.286566      0.0540657              0
       0.300792      0.0537152              0
       0.315214       0.053347              0
       0.329818      0.0529586              0
       0.344589      0.0525476              0
       0.359515      0.0521117              0
       0.374579      0.0516486              0
       0.389769      0.0511562              0
       0.405069      0.0506327              0
       0.420465      0.0500764              0
       0.435941      0.0494855              0
       0.451482      0.0488588              0
       0.467075      0.0481952              0
       0.482702      0.0474936              0
        0.49835      0.0467533              0
       0.514003       0.045974              0
       0.529646      0.0451552              0
       0.545263       0.044297              0
       0.560839      0.0433997              0
       0.576359      0.0424637              0
       0.591807      0.0414898              0
       0.607169      0.0404789              0
       0.622429      0.0394323              0
       0.637572      0.0383514              0
       0.652584      0.0372378              0
       0.667448      0.0360936              0
       0.682151      0.0349208              0
       0.696679      0.0337216              0
       0.711015      0.0324987              0
       0.725147      0.0312547              0
        0.73906      0.0299925              0
        0.75274      0.0287149              0
       0.766173      0.0274253              0
       0.779346      0.0261267              0
       0.792246      0.0248225              0
        0.80486      0.0235162              0
       0.817175      0.0222113              0
       0.829178      0.0209112              0
       0.840858      0.0196196              0
       0.852202      0.0183401              0
         0.8632      0.0170763              0
       0.873839      0.0158317              0
        0.88411      0.0146099              0
       0.894001      0.0134144              0
       0.903503      0.0122487              0
       0.912605      0.0111162              0
       0.921299      0.0100201              0
       0.929576     0.00896359              0
       0.937426     0.00794984              0
       0.944842     0.00698176              0
       0.951817     0.00606219              0
       0.958342     0.00519382              0
       0.964412     0.00437918              0
        0.97002     0.00362067              0
        0.97516     0.00292049              0
       0.979827     0.00228068              0
       0.984016     0.00170313              0
       0.987722      0.0011895              0
       0.990942     0.00074129              0
       0.993672    0.000359812              0
        0.99591   4.61712e-005              0
       0.997653   -0.000198721              0
       0.998899   -0.000374153              0
       0.999648   -0.000479616              0
       0.999897   -0.000514805              0
       0.999859    0.000578289              0
        1.00186    0.000572506     0.00113353
        1.00113    0.000982974     0.00153713
       0.999916     0.00151821     0.00176163
       0.998211     0.00217712     0.00200084
        0.99602     0.00295826     0.00217812
       0.993344     0.00385984      0.0022633
       0.990186     0.00487975     0.00229709
        0.98655     0.00601554     0.00205785
       0.982438     0.00726446     0.00213207
       0.977854     0.00862344      0.0023127
       0.972803      0.0100891     0.00250168
       0.967288      0.0116579     0.00268693
       0.961317      0.0133258     0.00286798
       0.954893      0.0150887     0.00304485
       0.948023      0.0169423     0.00321751
       0.940714      0.0188818      0.0033859
       0.932972      0.0209026     0.00354994
       0.924804      0.0229995     0.00370955
       0.916219      0.0251674     0.00386463
       0.907225       0.027401      0.0040151
       0.897829      0.0296947     0.00416088
       0.888042      0.0320431     0.00430187
       0.877871      0.0344404       0.004438
       0.867328      0.0368809      0.0045692
       0.856421      0.0393587     0.00469537
       0.845163      0.0418679     0.00481645
       0.833562      0.0444026     0.00493238
       0.821631       0.046957     0.00504308
        0.80938       0.049525      0.0051485
       0.796823      0.0521007     0.00524857
        0.78397      0.0546783     0.00534324
       0.770835      0.0572519     0.00543247
       0.757429      0.0598157      0.0055162
       0.743767      0.0623641      0.0055944
       0.729861      0.0648913     0.00566701
       0.715725      0.0673919     0.00573402
       0.701373      0.0698604     0.00579539
       0.686818      0.0722916     0.00585108
       0.672075      0.0746803     0.00590109
       0.657158      0.0770215     0.00594538
       0.642083      0.0793103     0.00598396
       0.626863      0.0815419      0.0060168
       0.611515       0.083712      0.0060439
       0.596052      0.0858161     0.00606526
       0.580491      0.0878501     0.00608088
       0.564846      0.0898101     0.00609077
       0.549133      0.0916923     0.00609493
       0.533368      0.0934932      0.0060934
       0.517567      0.0952096     0.00608617
       0.501744      0.0968383     0.00607329
       0.485917      0.0983767     0.00605476
         0.4701      0.0998221     0.00603064
       0.454311       0.101172     0.00600094
       0.438563       0.102425     0.00596572
       0.422874       0.103579     0.00592501
       0.407259       0.104633     0.00587886
       0.391733       0.105585     0.00582733
       0.376313       0.106434     0.00577046
       0.361014        0.10718     0.00570833
       0.345851       0.107823     0.00564099
       0.330841       0.108363      0.0055685
       0.315997       0.108799     0.00549095
       0.301335       0.109132     0.00540841
        0.28687       0.109364     0.00532095
       0.272617       0.109496     0.00522867
       0.258589       0.109528     0.00513164
       0.244803       0.109463     0.00502993
        0.23127       0.109302     0.00492354
       0.218005       0.109049     0.00481242
       0.205022       0.108704     0.00469939
       0.191765       0.108187     0.00460091
       0.178332       0.107041     0.00451622
       0.165294       0.105244     0.00442833
       0.152672       0.102851     0.00433477
       0.140485      0.0999214     0.00423672
       0.128751      0.0965125     0.00413521
       0.117483      0.0926834     0.00403113
       0.106691       0.088492     0.00392524
      0.0963857      0.0839956     0.00381819
      0.0865734      0.0792502      0.0037105
      0.0772604      0.0743104     0.00360254
      0.0684511      0.0692288     0.00349462
      0.0601494      0.0640564     0.00338691
      0.0523584      0.0588419     0.00327955
      0.0450803       0.053632     0.00317261
      0.0383171      0.0484712     0.00306614
      0.0320704      0.0434015     0.00296022
      0.0263412      0.0384624     0.00285497
      0.0211306       0.033691     0.00275058
       0.016439      0.0291216     0.00264743
      0.0122668      0.0247859      0.0025461
     0.00861413      0.0207124     0.00244757
     0.00548066      0.0169271     0.00235329
     0.00286591      0.0134525      0.0022653
    0.000769054      0.0103083     0.00218604
   -0.000811062     0.00751084     0.00211837
    -0.00187594      0.0050732     0.00206462
    -0.00242746     0.00300515     0.00198835
    -0.00199648    0.000222096     0.00151517
    0.000395093    -0.00100221     0.00061281
     0.00230482    -0.00113448    0.000161464
     0.00468792   -0.000885064     0.00010028
     0.00753911   -0.000266925    0.000135673
      0.0108525    0.000703987    0.000228128
      0.0146217      0.0020088    0.000356806
      0.0188394     0.00362583    0.000511178
       0.023498     0.00553066    0.000685856
      0.0285889     0.00769631    0.000877614
      0.0341032      0.0100933     0.00108419
       0.040031        0.01269     0.00130398
       0.046362      0.0154526     0.00153581
      0.0530851      0.0183454     0.00177875
      0.0601887      0.0213311     0.00203195
      0.0676606       0.024371      0.0022946
      0.0754882      0.0274252     0.00256579
      0.0836585      0.0304531     0.00284451
      0.0921583      0.0334133     0.00312959
       0.100974      0.0362644     0.00341962
       0.110093      0.0389648     0.00371291
       0.119501      0.0414732     0.00400748
       0.129188      0.0437489     0.00430103
       0.139141      0.0457519     0.00459091
       0.149352       0.047443     0.00487419
       0.159811      0.0487836     0.00514779
       0.170513       0.049736     0.00540828
       0.181455      0.0502631     0.00565166
       0.192634      0.0503278     0.00586869
       0.204596      0.0499553       0.006035
       0.217415        0.04952     0.00616803
       0.230511      0.0490889     0.00629313
       0.243869      0.0486595     0.00641325
       0.257478       0.048229     0.00652806
       0.271324       0.047795     0.00663718
       0.285395      0.0473549      0.0067403
       0.299676      0.0469061     0.00683722
       0.314154      0.0464461     0.00692775
       0.328815      0.0459726     0.00701173
       0.343645      0.0454831       0.007089
        0.35863      0.0449756     0.00715942
       0.373755      0.0444478     0.00722285
       0.389006      0.0438978     0.00727915
       0.404368      0.0433237     0.00732822
       0.419826       0.042724     0.00736995
       0.435366       0.042097     0.00740424
       0.450971      0.0414415     0.00743101
       0.466628      0.0407564     0.00745019
       0.482321      0.0400407     0.00746172
       0.498034      0.0392937     0.00746555
       0.513752      0.0385151     0.00746165
        0.52946      0.0377045        0.00745
       0.545143       0.036862     0.00743059
       0.560785      0.0359877     0.00740343
       0.576371      0.0350822     0.00736853
       0.591885      0.0341462     0.00732594
       0.607313      0.0331805     0.00727568
       0.622638      0.0321863     0.00721783
       0.637847      0.0311652     0.00715245
       0.652923      0.0301186     0.00707962
       0.667852      0.0290483     0.00699944
       0.682619      0.0279565     0.00691202
        0.69721      0.0268454     0.00681747
       0.711609      0.0257173     0.00671593
       0.725803      0.0245748     0.00660753
       0.739777      0.0234206     0.00649243
       0.753518      0.0222576     0.00637078
       0.767011      0.0210888     0.00624276
       0.780243      0.0199173     0.00610853
       0.793201      0.0187463      0.0059683
       0.805872       0.017579     0.00582225
       0.818242      0.0164188     0.00567059
         0.8303      0.0152691     0.00551353
       0.842033      0.0141332     0.00535128
        0.85343      0.0130146     0.00518407
       0.864478      0.0119166     0.00501212
       0.875167      0.0108428     0.00483569
       0.885486      0.0097964       0.004655
       0.895423     0.00878076     0.00447032
        0.90497     0.00779912     0.00428191
       0.914116     0.00685466     0.00409004
       0.922852     0.00595045     0.00389499
       0.931169     0.00508947     0.00369708
       0.939058      0.0042746     0.00349661
       0.946511     0.00350856     0.00329395
       0.953521     0.00279398     0.00308949
       0.960079     0.00213332     0.00288371
       0.966181     0.00152888      0.0026772
       0.971818    0.000982824     0.00247076
       0.976986    0.000497141     0.00226561
       0.981679   7.36428e-005     0.00206368
       0.985892   -0.000286034       0.001867
        0.98962   -0.000580435      0.0016746
        0.99286   -0.000808297     0.00148248
       0.995609   -0.000968545      0.0012944
       0.997863     -0.0010603     0.00112312
        0.99962    -0.00108288    0.000985671
        1.00088     -0.0010358    0.000907351
        1.00164   -0.000918788     0.00104649
        1.00189   -0.000731752     0.00193975
        1.00186    0.000572506     0.00113353
        1.00386    0.000566723      0.0042968
        1.00314     0.00119738     0.00500617
        1.00192     0.00195133     0.00447748
        1.00022     0.00282725     0.00381974
       0.998023     0.00382348     0.00325286
       0.995343     0.00493804     0.00323544
       0.992178      0.0061686     0.00509206
       0.988532     0.00751253      0.0043424
       0.984409     0.00896687     0.00430302
       0.979811      0.0105284       0.004661
       0.974744      0.0121935      0.0050456
       0.969213      0.0139584     0.00542195
       0.963221      0.0158191     0.00578889
       0.956776      0.0177712     0.00614685
       0.949882      0.0198101     0.00649598
       0.942547      0.0219311     0.00683624
       0.934777      0.0241292     0.00716756
        0.92658      0.0263992     0.00748982
       0.917963      0.0287359     0.00780286
       0.908935      0.0311337     0.00810653
       0.899505      0.0335871     0.00840068
        0.88968      0.0360903     0.00868515
       0.879471      0.0386375     0.00895978
       0.868887      0.0412229     0.00922443
       0.857939      0.0438405     0.00947895
       0.846636      0.0464842     0.00972319
        0.83499      0.0491482     0.00995703
       0.823012      0.0518263      0.0101803
       0.810714      0.0545126       0.010393
       0.798107       0.057201      0.0105949
       0.785203      0.0598856      0.0107859
       0.772016      0.0625604      0.0109659
       0.758557      0.0652197      0.0111348
        0.74484      0.0678575      0.0112926
       0.730879      0.0704683      0.0114392
       0.716686      0.0730465      0.0115745
       0.702276      0.0755865      0.0116984
       0.687662      0.0780831      0.0118109
        0.67286      0.0805311      0.0119119
       0.657884      0.0829253      0.0120015
       0.642747       0.085261      0.0120795
       0.627466      0.0875333       0.012146
       0.612055      0.0897378       0.012201
        0.59653      0.0918701      0.0122444
       0.580905       0.093926      0.0122762
       0.565197      0.0959017      0.0122965
        0.54942      0.0977932      0.0123053
       0.533591      0.0995973      0.0123027
       0.517726       0.101311      0.0122886
       0.501839        0.10293      0.0122631
       0.485947       0.104453      0.0122262
       0.470066       0.105876      0.0121782
       0.454212       0.107199      0.0121189
         0.4384       0.108418      0.0120485
       0.422647       0.109532      0.0119671
       0.406968       0.110539      0.0118747
       0.391379       0.111439      0.0117716
       0.375895        0.11223      0.0116577
       0.360534       0.112913      0.0115333
       0.345309       0.113486      0.0113985
       0.330237        0.11395      0.0112533
       0.315332       0.114305      0.0110979
        0.30061       0.114552      0.0109326
       0.286086       0.114691      0.0107574
       0.271774       0.114725      0.0105726
       0.257689       0.114654      0.0103783
       0.243845       0.114481      0.0101746
       0.230257       0.114206     0.00996064
       0.216937       0.113834     0.00973716
         0.2039       0.113366     0.00950871
       0.190597       0.112721     0.00930618
       0.177123       0.111448     0.00913199
       0.164044       0.109524     0.00895225
       0.151382       0.107006     0.00876097
       0.139157       0.103951     0.00856146
       0.127384       0.100417     0.00835538
       0.116077      0.0964617     0.00814457
       0.105248      0.0921431     0.00793054
      0.0949046       0.087518     0.00771458
      0.0850556       0.082642     0.00749771
      0.0757065      0.0775693     0.00728073
      0.0668619      0.0723523      0.0070642
      0.0585258      0.0670414     0.00684854
      0.0507013      0.0616853     0.00663402
      0.0433907      0.0563303     0.00642085
      0.0365962      0.0510205     0.00620923
      0.0303194      0.0457979      0.0059994
      0.0245614      0.0407018     0.00579175
      0.0193233       0.035769     0.00558691
      0.0146058      0.0310338     0.00538595
      0.0104091      0.0265276     0.00519059
     0.00673354       0.022279     0.00500353
     0.00357883      0.0183139     0.00482908
    0.000944536      0.0146548     0.00467041
     -0.0011701      0.0113214     0.00453311
    -0.00276619     0.00833007      0.0044142
    -0.00384518     0.00569407     0.00431914
    -0.00440891     0.00342325     0.00414662
    -0.00399295    0.000444191     0.00325603
     -0.0016291   -0.000992083     0.00161114
    0.000264893    -0.00134736    0.000776997
      0.0026346    -0.00132458    0.000579451
     0.00547478   -0.000936342     0.00059608
     0.00877959   -0.000198223    0.000741517
      0.0125426     0.00087133    0.000968735
      0.0167567     0.00225107     0.00125364
      0.0214141     0.00391705     0.00158518
      0.0265066     0.00584277     0.00195526
      0.0320249     0.00799932     0.00235814
      0.0379595      0.0103555      0.0027897
      0.0442999      0.0128782     0.00324696
      0.0510351      0.0155322     0.00372761
      0.0581537      0.0182808     0.00422966
      0.0656433      0.0210859     0.00475126
      0.0734915      0.0239082     0.00529046
      0.0816853      0.0267077     0.00584514
      0.0902113      0.0294438     0.00641286
      0.0990564      0.0320754     0.00699076
       0.108207      0.0345617     0.00757546
       0.117651       0.036862     0.00816302
       0.127376      0.0389362      0.0087488
        0.13737      0.0407448     0.00932756
       0.147624      0.0422492     0.00989344
        0.15813      0.0434115      0.0104407
       0.168882      0.0441944      0.0109619
       0.179875      0.0445613      0.0114489
       0.191108      0.0444758      0.0118816
       0.203122      0.0439628      0.0122107
       0.215988      0.0433932      0.0124735
       0.229131      0.0428335      0.0127204
        0.24254      0.0422811      0.0129589
         0.2562      0.0417337      0.0131886
       0.270099      0.0411888       0.013407
       0.284223      0.0406441      0.0136137
       0.298559       0.040097      0.0138079
       0.313094      0.0395452      0.0139895
       0.327812      0.0389865      0.0141579
       0.342701      0.0384186       0.014313
       0.357745      0.0378394      0.0144543
       0.372931       0.037247      0.0145817
       0.388243      0.0366393      0.0146948
       0.403667      0.0360147      0.0147935
       0.419188      0.0353716      0.0148774
       0.434791      0.0347085      0.0149465
        0.45046      0.0340242      0.0150005
       0.466181      0.0333175      0.0150394
       0.481939      0.0325877      0.0150629
       0.497717      0.0318341      0.0150711
       0.513501      0.0310562      0.0150637
       0.529275      0.0302538      0.0150409
       0.545024      0.0294269      0.0150025
       0.560732      0.0285757      0.0149486
       0.576383      0.0277007      0.0148792
       0.591963      0.0268025      0.0147944
       0.607457       0.025882      0.0146943
       0.622848      0.0249404      0.0145789
       0.638121       0.023979      0.0144486
       0.653263      0.0229993      0.0143033
       0.668256      0.0220031      0.0141433
       0.683087      0.0209923      0.0139688
       0.697741      0.0199691      0.0137801
       0.712204      0.0189358      0.0135774
        0.72646      0.0178948       0.013361
       0.740495      0.0168487      0.0131312
       0.754297      0.0158003      0.0128884
       0.767849      0.0147524      0.0126328
        0.78114       0.013708       0.012365
       0.794156      0.0126701      0.0120851
       0.806884      0.0116418      0.0117937
        0.81931      0.0106264      0.0114912
       0.831422     0.00962693       0.011178
       0.843209     0.00864673      0.0108545
       0.854658     0.00768902      0.0105213
       0.865757     0.00675702      0.0101788
       0.876495     0.00585393     0.00982755
       0.886862     0.00498292      0.0094681
       0.896846      0.0041471       0.009101
       0.906438     0.00334952     0.00872684
       0.915627     0.00259314     0.00834625
       0.924405     0.00188083     0.00795992
       0.932762     0.00121535     0.00756859
       0.940689    0.000599356      0.0071731
       0.948179   3.53694e-005      0.0067744
       0.955224   -0.000474226     0.00637363
       0.961817   -0.000927187     0.00597224
        0.96795    -0.00132143     0.00557216
       0.973617    -0.00165502     0.00517619
       0.978813    -0.00192621     0.00478886
       0.983531     -0.0021334     0.00441773
       0.987768    -0.00227519     0.00407168
       0.991519    -0.00235037     0.00374885
       0.994779    -0.00235788     0.00343227
       0.997546     -0.0022969     0.00312954
       0.999816    -0.00216677     0.00290781
        1.00159    -0.00196704     0.00281515
        1.00286    -0.00169745     0.00293593
        1.00363    -0.00135796     0.00339104
        1.00389     -0.0009487     0.00434887
        1.00386    0.000566723      0.0042968
        1.00586     0.00056094      0.0107725
        1.00514     0.00141179     0.00550923
        1.00393     0.00238445     0.00429036
        1.00222     0.00347737     0.00350807
        1.00003      0.0046887     0.00298266
       0.997341     0.00601623     0.00335247
        0.99417     0.00745745     0.00825797
       0.990515     0.00900952     0.00672115
        0.98638      0.0106693     0.00660056
       0.981769      0.0124333     0.00715801
       0.976686      0.0142979      0.0077572
       0.971137       0.016259     0.00833981
       0.965126      0.0183124     0.00890634
       0.958658      0.0204536     0.00945802
       0.951741      0.0226779     0.00999541
        0.94438      0.0249804      0.0105187
       0.936582      0.0273558      0.0110279
       0.928356       0.029799      0.0115229
       0.919707      0.0323044      0.0120035
       0.910646      0.0348664      0.0124696
        0.90118      0.0374794       0.012921
       0.891318      0.0401374      0.0133574
        0.88107      0.0428346      0.0137787
       0.870446      0.0455649      0.0141845
       0.859456      0.0483222      0.0145748
       0.848109      0.0511006      0.0149493
       0.836418      0.0538938      0.0153078
       0.824394      0.0566957      0.0156502
       0.812047      0.0595003      0.0159762
       0.799391      0.0623014      0.0162856
       0.786436      0.0650929      0.0165784
       0.773197       0.067869      0.0168543
       0.759685      0.0706236      0.0171133
       0.745913       0.073351      0.0173551
       0.731896      0.0760454      0.0175798
       0.717647      0.0787011      0.0177871
       0.703179      0.0813126      0.0179771
       0.688507      0.0838746      0.0181495
       0.673646      0.0863818      0.0183045