VARIABLES = "X", "Y", "U",
ZONE I=124, J=101, DATAPACKING=POINT

              1              0              0
       0.979641       0.004079              0
       0.964244       0.006169              0
       0.947231       0.008434              0
       0.929323       0.010765              0
       0.910956       0.013101              0
       0.892372        0.01542              0
       0.873723         0.0177              0
       0.855041       0.019931              0
       0.836311       0.022119              0
       0.817558       0.024266              0
       0.798819       0.026366              0
       0.780088       0.028414              0
       0.761336       0.030413              0
        0.74256        0.03237              0
        0.72378       0.034284              0
       0.705012       0.036149              0
       0.686255       0.037964              0
       0.667502       0.039728              0
       0.648751        0.04144              0
       0.630004       0.043098              0
       0.611266       0.044701              0
       0.592538       0.046245              0
       0.573821       0.047728              0
       0.555117       0.049149              0
        0.53643       0.050503              0
       0.517763       0.051786              0
       0.499117       0.052996              0
       0.480488       0.054127              0
       0.461875       0.055178              0
       0.443287       0.056144              0
        0.42474       0.057019              0
       0.406241       0.057796              0
       0.387789       0.058466              0
       0.369372       0.059023              0
       0.350989       0.059462              0
       0.332648       0.059779              0
       0.314366       0.059965              0
       0.296159       0.060009              0
       0.278033       0.059903              0
       0.259997       0.059634              0
        0.24206       0.059191              0
       0.224236       0.058562              0
       0.206544       0.057733              0
       0.189011       0.056692              0
       0.171676       0.055421              0
       0.154596       0.053909              0
       0.137852       0.052138              0
       0.121548       0.050098              0
       0.105827       0.047785              0
       0.090903        0.04522              0
       0.077039       0.042449              0
       0.064541       0.039548              0
       0.053594       0.036612              0
       0.036254       0.030913              0
       0.023982       0.025653              0
       0.015371       0.020871              0
       0.009117       0.016316              0
       0.004621       0.011797              0
       0.001777       0.007318              0
       0.000322       0.003059              0
       3.6e-005      -0.001014              0
       0.000894      -0.005155              0
       0.003007      -0.009544              0
       0.006653      -0.014058              0
       0.012012      -0.018579              0
        0.01931      -0.023217              0
       0.029567      -0.028218              0
       0.044211      -0.033717              0
       0.053594      -0.036612              0
       0.064541      -0.039548              0
       0.077039      -0.042449              0
       0.090903       -0.04522              0
       0.105827      -0.047784              0
       0.121548      -0.050098              0
       0.137852      -0.052138              0
       0.154596      -0.053909              0
       0.171676      -0.055421              0
       0.189011      -0.056692              0
       0.206544      -0.057733              0
       0.224236      -0.058562              0
        0.24206      -0.059191              0
       0.259997      -0.059634              0
       0.278033      -0.059903              0
       0.296159      -0.060009              0
       0.314366      -0.059965              0
       0.332648      -0.059779              0
       0.350989      -0.059462              0
       0.369372      -0.059023              0
       0.387789      -0.058466              0
       0.406241      -0.057796              0
        0.42474      -0.057019              0
       0.443287      -0.056144              0
       0.461875      -0.055178              0
       0.480488      -0.054127              0
       0.499117      -0.052996              0
       0.517763      -0.051786              0
        0.53643      -0.050503              0
       0.555117      -0.049149              0
       0.573821      -0.047728              0
       0.592538      -0.046245              0
       0.611266      -0.044701              0
       0.630004      -0.043098              0
       0.648751       -0.04144              0
       0.667502      -0.039728              0
       0.686255      -0.037964              0
       0.705012      -0.036149              0
        0.72378      -0.034284              0
        0.74256       -0.03237              0
       0.761336      -0.030413              0
       0.780088      -0.028414              0
       0.798819      -0.026366              0
       0.817558      -0.024266              0
       0.836311      -0.022119              0
       0.855041      -0.019931              0
       0.873723        -0.0177              0
       0.892372       -0.01542              0
       0.910956      -0.013101              0
       0.929323      -0.010765              0
       0.947231      -0.008434              0
       0.964244      -0.006169              0
       0.979641      -0.004079              0
              1       -0.00126              0
              1              0              0
          1.002              0    0.000545832
       0.981835     0.00439563    0.000798366
       0.966565     0.00682123      0.0011478
       0.949677      0.0094182     0.00147839
       0.931884      0.0120777     0.00167949
       0.913619      0.0147385      0.0019583
       0.895122      0.0173778     0.00227233
       0.876543      0.0199731     0.00258564
       0.857914      0.0225134     0.00289149
       0.839221      0.0250038     0.00318913
       0.820489      0.0274456     0.00347746
       0.801754       0.029832     0.00375517
       0.783013      0.0321571     0.00402174
       0.764235      0.0344232     0.00427741
       0.745419      0.0366365     0.00452165
       0.726586      0.0387952     0.00475321
       0.707751      0.0408927      0.0049715
       0.688915      0.0429275     0.00517621
       0.670071      0.0448978      0.0053669
       0.651217      0.0468021     0.00554319
       0.632358      0.0486378     0.00570476
       0.613497      0.0504036     0.00585119
       0.594638      0.0520949     0.00598217
       0.575782      0.0537093     0.00609762
       0.556932      0.0552455     0.00619721
       0.538092      0.0566982     0.00628073
       0.519267      0.0580631     0.00634821
       0.500459       0.059338     0.00639953
       0.481663      0.0605168     0.00643474
       0.462881      0.0615983     0.00645389
       0.444122      0.0625774     0.00645698
       0.425403      0.0634482     0.00644415
       0.406732      0.0642038     0.00641557
       0.388108      0.0648352     0.00637157
       0.369521      0.0653365     0.00631247
       0.350971      0.0657031     0.00623854
       0.332467       0.065931     0.00615006
       0.314025      0.0660116     0.00604748
       0.295664      0.0659343     0.00593127
       0.277389      0.0656915     0.00580193
       0.259211      0.0652706     0.00566006
       0.241139      0.0646613     0.00550621
       0.223189      0.0638519     0.00534102
       0.205379      0.0628293     0.00516516
       0.187737      0.0615819     0.00497943
       0.170302      0.0600927     0.00478465
       0.153132      0.0583512     0.00458178
       0.136308      0.0563403     0.00437198
       0.119932      0.0540507      0.0041563
       0.104148      0.0514793     0.00393575
      0.0891675      0.0486475     0.00371141
      0.0752516      0.0456016     0.00348481
      0.0627038      0.0424178     0.00325645
      0.0517076      0.0391907     0.00304075
      0.0343989      0.0332206     0.00283228
      0.0221245      0.0276783     0.00265936
      0.0134918      0.0226032     0.00249625
     0.00720996      0.0177478     0.00235008
     0.00268637      0.0129239     0.00222764
   -0.000183766     0.00813634     0.00212506
    -0.00166068     0.00356425     0.00204201
    -0.00196208    -0.00082509      0.0019824
    -0.00111266    -0.00528222     0.00195275
    0.000997469     -0.0099844     0.00195621
     0.00464347     -0.0148089     0.00199255
      0.0100035     -0.0196381     0.00207658
       0.017301     -0.0245798     0.00219831
      0.0275458     -0.0298767      0.0023407
      0.0421512     -0.0356616     0.00254029
      0.0515655     -0.0388626      0.0027538
      0.0625452     -0.0420973     0.00298467
      0.0750768     -0.0452897     0.00321527
       0.088977     -0.0483449     0.00344595
       0.103942     -0.0511859     0.00367571
       0.119712     -0.0537692     0.00390281
       0.136073     -0.0560703     0.00412614
       0.152884     -0.0580935     0.00434461
       0.170041      -0.059848     0.00455711
       0.187464      -0.061351     0.00476235
       0.205094     -0.0626125     0.00495934
       0.222894       -0.06365     0.00514722
       0.240834     -0.0644746     0.00532516
       0.258897     -0.0650998     0.00549247
       0.277067      -0.065537     0.00564846
       0.295334     -0.0657964     0.00579259
       0.313689     -0.0658908     0.00592421
       0.332124     -0.0658275     0.00604278
       0.350624     -0.0656172     0.00614781
        0.36917     -0.0652685     0.00623875
       0.387754     -0.0647851     0.00631524
       0.406376     -0.0641719       0.006377
       0.425046     -0.0634345     0.00642371
       0.443765      -0.062582     0.00645502
       0.462524     -0.0616211     0.00647065
       0.481308     -0.0605578     0.00647039
       0.500106     -0.0593971     0.00645414
       0.518918     -0.0581401     0.00642183
       0.537748     -0.0567929     0.00637334
       0.556592     -0.0553577     0.00630872
       0.575449     -0.0538387     0.00622792
       0.594312     -0.0522411     0.00613105
       0.613179     -0.0505663     0.00601834
       0.632048     -0.0488166     0.00588986
       0.650917     -0.0469964     0.00574584
       0.669781     -0.0451072     0.00558663
       0.688636     -0.0431514      0.0054125
       0.707484     -0.0411306     0.00522378
       0.726331     -0.0390464     0.00502085
       0.745178     -0.0369003     0.00480399
       0.764008      -0.034699     0.00457373
         0.7828     -0.0324442     0.00433119
       0.801556     -0.0301296     0.00407689
       0.820306      -0.027753     0.00381067
       0.839054     -0.0253201     0.00353303
       0.857764     -0.0228377      0.0032452
       0.876409     -0.0203047     0.00294821
       0.895006     -0.0177159     0.00264207
        0.91352      -0.015082     0.00232684
       0.931803     -0.0124259     0.00200304
       0.949613    -0.00977005     0.00166879
        0.96652    -0.00717585     0.00132474
       0.981808    -0.00475213    0.000975543
        1.00199    -0.00160482    0.000762727
          1.002              0    0.000545832
          1.004              0     0.00127517
        0.98403     0.00471227     0.00187731
       0.968886     0.00747345     0.00277488
       0.952122      0.0104024     0.00338735
       0.934445      0.0133905     0.00344878
       0.916283       0.016376     0.00390828
       0.897872      0.0193357     0.00452001
       0.879363      0.0222461     0.00514462
       0.860787      0.0250957     0.00575587
       0.842131      0.0278887     0.00635081
        0.82342      0.0306253     0.00692746
        0.80469      0.0332979     0.00748319
       0.785937      0.0359002     0.00801683
       0.767134      0.0384334     0.00852882
       0.748279      0.0409029      0.0090182
       0.729392      0.0433064     0.00948258
        0.71049      0.0456365     0.00992068
       0.691574      0.0478909      0.0103318
       0.672639      0.0500675      0.0107151
       0.653684      0.0521641      0.0110697
       0.634711      0.0541777      0.0113951
       0.615729      0.0561062      0.0116903
       0.596739      0.0579447      0.0119547
       0.577743      0.0596906      0.0121881
       0.558747       0.061342      0.0123899
       0.539755      0.0628933      0.0125597
       0.520772      0.0643402      0.0126974
         0.5018        0.06568      0.0128028
       0.482838      0.0669065      0.0128759
       0.463887      0.0680185      0.0129168
       0.444957      0.0690108      0.0129257
       0.426066      0.0698775      0.0129027
       0.407223      0.0706115      0.0128481
       0.388428      0.0712043      0.0127625
       0.369671        0.07165      0.0126465
       0.350954      0.0719441      0.0125008
       0.332285       0.072083      0.0123259
       0.313684      0.0720582      0.0121226
       0.295169      0.0718596       0.011892
       0.276745        0.07148       0.011635
       0.258425      0.0709073      0.0113527
       0.240219      0.0701315      0.0110464
       0.222141      0.0691419      0.0107173
       0.204213      0.0679256      0.0103668
       0.186462      0.0664719     0.00999652
       0.168928      0.0647643     0.00960833
       0.151668      0.0627933     0.00920415
       0.134763      0.0605425     0.00878682
       0.118316      0.0580034     0.00835725
       0.102469      0.0551736     0.00792083
       0.087432       0.052075     0.00747474
      0.0734642      0.0487543     0.00702704
      0.0608666      0.0452875     0.00657738
      0.0498212      0.0417694      0.0061298
      0.0325439      0.0355282     0.00571128
       0.020267      0.0297035     0.00538935
      0.0116125      0.0243354     0.00508142
     0.00530292      0.0191796     0.00479971
    0.000751745      0.0140508     0.00456114
    -0.00214453     0.00895468     0.00436077
    -0.00364336     0.00406951     0.00420276
    -0.00396015   -0.000636179     0.00409178
    -0.00311931    -0.00540944     0.00403673
    -0.00101206     -0.0104248     0.00404215
     0.00263395     -0.0155599     0.00410798
     0.00799493     -0.0206972     0.00426282
      0.0152921     -0.0259426     0.00448354
      0.0255246     -0.0315355     0.00473715
      0.0400915     -0.0376062     0.00513585
      0.0495371     -0.0411132     0.00558001
      0.0605493     -0.0446467     0.00603164
      0.0731146     -0.0481305     0.00648345
       0.087051     -0.0514699     0.00693804
       0.102057     -0.0545877     0.00739046
       0.117875     -0.0574403     0.00784065
       0.134294     -0.0600026     0.00828385
       0.151172     -0.0622781     0.00871839
       0.168406     -0.0642751     0.00914155
       0.185916     -0.0660099     0.00955066
       0.203644     -0.0674921     0.00994361
       0.221551      -0.068738      0.0103186
       0.239609     -0.0697583      0.0106739
       0.257797     -0.0705657      0.0110081
       0.276101     -0.0711709      0.0113197
       0.294509     -0.0715839      0.0116078
       0.313011     -0.0718165       0.011871
       0.331601     -0.0718759      0.0121083
       0.350259     -0.0717723      0.0123186
       0.368969     -0.0715139       0.012501
        0.38772     -0.0711042      0.0126546
       0.406511     -0.0705477      0.0127788
       0.425352     -0.0698501       0.012873
       0.444242       -0.06902      0.0129365
       0.463174     -0.0680642      0.0129689
       0.482128     -0.0669886      0.0129696
       0.501095     -0.0657982      0.0129384
       0.520073     -0.0644942      0.0128752
       0.539065     -0.0630828      0.0127798
       0.558068     -0.0615664      0.0126521
       0.577077     -0.0599494      0.0124921
       0.596086     -0.0582372      0.0123001
       0.615092     -0.0564316      0.0120765
       0.634092     -0.0545352      0.0118213
       0.653083     -0.0525528       0.011535
        0.67206     -0.0504864      0.0112184
       0.691017     -0.0483388      0.0108719
       0.709956     -0.0461122      0.0104962
       0.728883     -0.0438088       0.010092
       0.747796     -0.0414307     0.00965986
       0.766679     -0.0389851     0.00920099
       0.785511     -0.0364744     0.00871747
       0.804294     -0.0338931     0.00821025
       0.823054     -0.0312399     0.00767907
       0.841798     -0.0285212     0.00712507
       0.860486     -0.0257445     0.00655076
       0.879096     -0.0229094     0.00595791
       0.897639     -0.0200117     0.00534643
       0.916084     -0.0170631     0.00471638
       0.934282     -0.0140867     0.00406577
       0.951995     -0.0111061      0.0033872
       0.968795    -0.00818271     0.00268037
       0.983975    -0.00542525     0.00196092
        1.00398    -0.00194965     0.00157612
          1.004              0     0.00127517
          1.006              0     0.00222644
       0.986224      0.0050289     0.00330261
       0.971207     0.00812568      0.0051844
       0.954568      0.0113866      0.0057813
       0.937006      0.0147032      0.0053184
       0.918946      0.0180135     0.00585075
       0.900622      0.0212935     0.00674321
       0.882183      0.0245192     0.00767468
        0.86366      0.0276781     0.00858937
       0.845041      0.0307735      0.0094805
        0.82635      0.0338049      0.0103449
       0.807625      0.0367639      0.0111784
       0.788862      0.0396433       0.011979
       0.770033      0.0424436      0.0127472
       0.751138      0.0451694      0.0134819
       0.732198      0.0478176      0.0141796
       0.713229      0.0503802      0.0148383
       0.694234      0.0528544      0.0154569
       0.675208      0.0552373      0.0160341
        0.65615      0.0575262      0.0165686
       0.637065      0.0597175      0.0170595
        0.61796      0.0618087      0.0175055
       0.598839      0.0637946      0.0179054
       0.579705      0.0656719      0.0182591
       0.560562      0.0674385      0.0185655
       0.541417      0.0690885      0.0188239
       0.522276      0.0706173      0.0190342
       0.503142       0.072022       0.019196
       0.484014      0.0732963      0.0193095
       0.464894      0.0744388      0.0193747
       0.445793      0.0754443      0.0193917
        0.42673      0.0763067      0.0193608
       0.407714      0.0770193      0.0192824
       0.388747      0.0775735      0.0191574
        0.36982      0.0779636      0.0189865
       0.350936      0.0781852      0.0187709
       0.332104       0.078235      0.0185113
       0.313344      0.0781048      0.0182092
       0.294673      0.0777849      0.0178658
       0.276102      0.0772685      0.0174826
       0.257639      0.0765439      0.0170614
       0.239298      0.0756018       0.016604
       0.221094      0.0744318      0.0161124
       0.203048      0.0730218      0.0155886
       0.185188      0.0713618      0.0150354
       0.167554       0.069436      0.0144556
       0.150204      0.0672355      0.0138524
       0.133219      0.0647448      0.0132288
         0.1167      0.0619562      0.0125918
        0.10079      0.0588679      0.0119358
      0.0856964      0.0555025        0.01128
      0.0716769      0.0519069      0.0106142
      0.0590294      0.0481573     0.00993835
      0.0479349      0.0443481     0.00926292
      0.0306888      0.0378358     0.00864092
      0.0184096      0.0317288     0.00817701
     0.00973326      0.0260676       0.007736
     0.00339589      0.0206114     0.00733364
    -0.00118288      0.0151777     0.00698164
     -0.0041053     0.00977302     0.00668921
    -0.00562604     0.00457476     0.00646223
    -0.00595823   -0.000447269     0.00630561
    -0.00512597    -0.00553666     0.00622919
    -0.00302159     -0.0108652     0.00623508
    0.000624423     -0.0163108     0.00632886
     0.00598639     -0.0217562     0.00653931
      0.0132831     -0.0273054     0.00684246
      0.0235034     -0.0331942     0.00719193
      0.0380317     -0.0395509     0.00778394
      0.0475086     -0.0433638     0.00845934
      0.0585535      -0.047196     0.00913115
      0.0711525     -0.0509712     0.00979679
      0.0851249     -0.0545948      0.0104623
       0.100173     -0.0579896      0.0111363
       0.116039     -0.0611115      0.0118027
       0.132515      -0.063935       0.012463
        0.14946     -0.0664626      0.0131108
       0.166772     -0.0687021      0.0137425
       0.184369     -0.0706689      0.0143539
       0.202195     -0.0723716      0.0149416
       0.220209      -0.073826      0.0155027
       0.238383     -0.0750419      0.0160346
       0.256697     -0.0760315      0.0165351
       0.275134     -0.0768049      0.0170022
       0.293684     -0.0773713      0.0174342
       0.312334     -0.0777423       0.017829
       0.331077     -0.0779244      0.0181851
       0.349895     -0.0779275      0.0185012
       0.368767     -0.0777594      0.0187754
       0.387685     -0.0774233      0.0190068
       0.406645     -0.0769236      0.0191941
       0.425658     -0.0762656      0.0193366
        0.44472      -0.075458      0.0194332
       0.463823     -0.0745072      0.0194832
       0.482948     -0.0734193      0.0194859
       0.502084     -0.0721993       0.019441
       0.521228     -0.0708483      0.0193481
       0.540383     -0.0693727      0.0192069
       0.559543     -0.0677751      0.0190175
       0.578705     -0.0660601      0.0187798
        0.59786     -0.0642334      0.0184941
       0.617005     -0.0622969       0.018161
       0.636136     -0.0602538      0.0177807
        0.65525     -0.0581092      0.0173538
       0.674338     -0.0558656      0.0168815
       0.693398     -0.0535262      0.0163644
       0.712429     -0.0510939      0.0158034
       0.731434     -0.0485712      0.0151998
       0.750414      -0.045961      0.0145545
       0.769351     -0.0432711      0.0138691
       0.788223     -0.0405046      0.0131467
       0.807031     -0.0376567      0.0123883
       0.825802     -0.0347269      0.0115938
       0.844541     -0.0317223      0.0107651
       0.863209     -0.0286512      0.0099061
       0.881782      -0.025514     0.00901965
       0.900273     -0.0223076     0.00810618
       0.918649     -0.0190441     0.00716473
       0.936762     -0.0157476     0.00619049
       0.954377     -0.0124421     0.00515411
       0.971071    -0.00918956     0.00406982
       0.986142    -0.00609838     0.00296904
        1.00597    -0.00229447     0.00242029
          1.006              0     0.00222644
          1.008              0     0.00343167
       0.988419     0.00534554     0.00538756
       0.973528      0.0087779     0.00830036
       0.957014      0.0123708     0.00891472
       0.939568      0.0160159     0.00730779
       0.921609       0.019651     0.00784256
       0.903372      0.0232514     0.00901596
       0.885003      0.0267922      0.0102684
       0.866534      0.0302605      0.0114999
       0.847951      0.0336584      0.0126994
       0.829281      0.0369846      0.0138632
       0.810561      0.0402299      0.0149864
       0.791787      0.0433864      0.0160658
       0.772932      0.0464538      0.0171024
       0.753997      0.0494359      0.0180947
       0.735003      0.0523288      0.0190379
       0.715968       0.055124      0.0199294
       0.696894      0.0578179      0.0207672
       0.677776      0.0604071      0.0215496
       0.658616      0.0628883      0.0222747
       0.639419      0.0652573      0.0229414
       0.620192      0.0675113      0.0235477
       0.600939      0.0696445      0.0240923
       0.581666      0.0716532      0.0245746
       0.562377       0.073535      0.0249933
       0.543079      0.0752837      0.0253474
        0.52378      0.0768943      0.0256367
       0.504483       0.078364      0.0258605
       0.485189      0.0796861      0.0260189
         0.4659      0.0808591      0.0261121
       0.446628      0.0818777      0.0261403
       0.427393       0.082736      0.0261037
       0.408205      0.0834271      0.0260029
       0.389066      0.0839426      0.0258386
        0.36997      0.0842771      0.0256122
       0.350918      0.0844262      0.0253251
       0.331923      0.0843869      0.0249786
       0.313003      0.0841514      0.0245743
       0.294178      0.0837103      0.0241142
       0.275458       0.083057         0.0236
       0.256854      0.0821806      0.0230343
       0.238378      0.0810721      0.0224194
       0.220047      0.0797218      0.0217582
       0.201882      0.0781181      0.0210536
       0.183913      0.0762518      0.0203094
        0.16618      0.0741077      0.0195297
        0.14874      0.0716776      0.0187187
       0.131674       0.068947      0.0178839
       0.115084      0.0659089      0.0170232
      0.0991108      0.0625622      0.0161592
      0.0839609        0.05893      0.0152661
      0.0698895      0.0550596      0.0143825
      0.0571922       0.051027      0.0134976
      0.0460485      0.0469268      0.0125458
      0.0288338      0.0401434      0.0116987
      0.0165521      0.0337541      0.0111247
     0.00785401      0.0277998      0.0105633
     0.00148885      0.0220433      0.0100303
    -0.00311751      0.0163046     0.00957276
    -0.00606606      0.0105914     0.00918631
    -0.00760872     0.00508002     0.00889354
    -0.00795631   -0.000258358      0.0086945
    -0.00713263    -0.00566388      0.0085975
    -0.00503112     -0.0113056     0.00860611
     -0.0013851     -0.0170618     0.00871904
     0.00397785     -0.0228153     0.00899009
      0.0112741     -0.0286682     0.00936038
      0.0214822     -0.0348529     0.00977185
      0.0359719     -0.0414955      0.0105751
      0.0454802     -0.0456144      0.0115233
      0.0565576     -0.0497454      0.0123998
      0.0691903      -0.053812      0.0132774
      0.0831989     -0.0577197      0.0141716
       0.098288     -0.0613914      0.0150588
       0.114203     -0.0647826       0.015953
       0.130736     -0.0678673      0.0168357
       0.147748     -0.0706472      0.0177051
       0.165137     -0.0731292      0.0185541
       0.182821     -0.0753278      0.0193767
       0.200745     -0.0772511      0.0201683
       0.218866      -0.078914      0.0209246
       0.237158     -0.0803256      0.0216419
       0.255597     -0.0814974      0.0223174
       0.274168     -0.0824388      0.0229479
       0.292859     -0.0831587      0.0235311
       0.311657      -0.083668      0.0240645
       0.330554     -0.0839729       0.024546
        0.34953     -0.0840826      0.0249737
       0.368566     -0.0840048      0.0253453
        0.38765     -0.0837424      0.0256591
        0.40678     -0.0832994      0.0259136
       0.425964     -0.0826812      0.0261076
       0.445198      -0.081896      0.0262398
       0.464472     -0.0809503      0.0263093
       0.483768     -0.0798501      0.0263153
       0.503073     -0.0786003      0.0262571
       0.522383     -0.0772024      0.0261341
         0.5417     -0.0756627       0.025946
       0.561019     -0.0739838      0.0256929
       0.580333     -0.0721708      0.0253748
       0.599634     -0.0702295      0.0249918
       0.618918     -0.0681622       0.024545
        0.63818     -0.0659724      0.0240345
       0.657416     -0.0636657      0.0234613
       0.676617     -0.0612448      0.0228266
       0.695779     -0.0587136      0.0221316
       0.714901     -0.0560755      0.0213773
       0.733986     -0.0533336      0.0205655
       0.753032     -0.0504913      0.0196975
       0.772022     -0.0475571      0.0187757
       0.790934     -0.0445347      0.0178041
       0.809768     -0.0414203      0.0167843
        0.82855     -0.0382139       0.015716
       0.847284     -0.0349234      0.0146022
       0.865932     -0.0315579      0.0134478
       0.884468     -0.0281187      0.0122557
       0.902906     -0.0246034      0.0110251
       0.921213     -0.0210251     0.00975576
       0.939242     -0.0174085     0.00843211
       0.956759     -0.0137782     0.00702193
       0.973346     -0.0101964     0.00551641
       0.988309     -0.0067715     0.00398627
        1.00796     -0.0026393     0.00334799
          1.008              0     0.00343167
           1.01              0     0.00498434
       0.990613     0.00566217     0.00793942
       0.975849     0.00943013        0.01252
       0.959459       0.013355      0.0125148
       0.942129      0.0173287      0.0095466
       0.924273      0.0212886      0.0099384
       0.906122      0.0252092      0.0113868
       0.887823      0.0290653      0.0129658
       0.869407      0.0328428      0.0145246
       0.850861      0.0365432      0.0160449
       0.832212      0.0401642      0.0175213
       0.813496      0.0436958      0.0189465
       0.794711      0.0471295      0.0203163
       0.775831       0.050464      0.0216314
       0.756857      0.0537023      0.0228903
       0.737809      0.0568399      0.0240875